#     Step Nr.          Time[fs]        Kin.[a.u.]          Temp[K]            Pot.[a.u.]        Cons Qty[a.u.]        UsedTime[s]
         0            0.000000         0.002565120        90.000000000       -23.507720088       -23.505154968         0.000000000
         1            0.500000         0.002471777        86.724931682       -23.508392964       -23.505875379       256.210348251
         2            1.000000         0.002301089        80.736186813       -23.508210803       -23.505865646        78.636365304
         3            1.500000         0.002063055        72.384504654       -23.507963706       -23.505857746        59.540812913
         4            2.000000         0.001843199        64.670622314       -23.507721647       -23.505847069        53.721359930
         5            2.500000         0.001670379        58.607030665       -23.507561065       -23.505838717        41.957572601
         6            3.000000         0.001606660        56.371388528       -23.507516875       -23.505833341        47.757459841
         7            3.500000         0.001639256        57.515040650       -23.507575416       -23.505830873        42.758669214
         8            4.000000         0.001773893        62.238926936       -23.507678376       -23.505830157        36.710980909
         9            4.500000         0.001887161        66.213074328       -23.507747794       -23.505828439        37.294876805
        10            5.000000         0.001863156        65.370814235       -23.507725939       -23.505823540        42.865562040
        11            5.500000         0.001762081        61.824492106       -23.507611635       -23.505815186        37.576147441
        12            6.000000         0.001611349        56.535917120       -23.507469083       -23.505805523        43.223536538
        13            6.500000         0.001500367        52.641979257       -23.507391883       -23.505797921        42.519366951
        14            7.000000         0.001552727        54.479090904       -23.507449690       -23.505794878        42.982162180
        15            7.500000         0.001764305        61.902530071       -23.507649150       -23.505796319        37.797603382
        16            8.000000         0.002038927        71.537923565       -23.507928654       -23.505800185        37.203650250
        17            8.500000         0.002281283        80.041252171       -23.508194131       -23.505803530        36.941505078
        18            9.000000         0.002459233        86.284823478       -23.508355915       -23.505804082        36.291693386
        19            9.500000         0.002482295        87.093998074       -23.508367262       -23.505801011        36.349800930
        20           10.000000         0.002337644        82.018749242       -23.508233122       -23.505794716        42.902606136
        21           10.500000         0.002121435        74.432813953       -23.508004606       -23.505786451        36.766324459
        22           11.000000         0.001935982        67.925987880       -23.507756619       -23.505777889        42.961440746
        23           11.500000         0.001784464        62.609838479       -23.507563978       -23.505770973        37.528508612
        24           12.000000         0.001710529        60.015729922       -23.507479826       -23.505767282        37.467223145
        25           12.500000         0.001733453        60.820040713       -23.507508328       -23.505767362        36.505768241
        26           13.000000         0.001859784        65.252518889       -23.507599996       -23.505770114        36.910676542
        27           13.500000         0.001917656        67.283014211       -23.507670870       -23.505773201        37.546851738
        28           14.000000         0.001897050        66.560043770       -23.507645715       -23.505773798        37.333531558
        29           14.500000         0.001749510        61.383449531       -23.507499414       -23.505770545        42.573833111
        30           15.000000         0.001528380        53.624862875       -23.507284266       -23.505764531        43.948845241
        31           15.500000         0.001357050        47.613555294       -23.507104128       -23.505759133        37.133993196
        32           16.000000         0.001335424        46.854768084       -23.507061524       -23.505758008        43.016710905
        33           16.500000         0.001472749        51.672980042       -23.507204430       -23.505762788        42.309080925
        34           17.000000         0.001744920        61.222398132       -23.507497097       -23.505771785        36.803474797
        35           17.500000         0.002108645        73.984065239       -23.507844773       -23.505781567        42.953455012
        36           18.000000         0.002425924        85.116142118       -23.508136908       -23.505788894        37.215908373
        37           18.500000         0.002564998        89.995694208       -23.508299125       -23.505792268        37.766510906
        38           19.000000         0.002623692        92.055057213       -23.508313390       -23.505792023        37.346032769
        39           19.500000         0.002513282        88.181181423       -23.508215382       -23.505789569        37.081842719
        40           20.000000         0.002373356        83.271726684       -23.508071454       -23.505786587        43.266047283
        41           20.500000         0.002240702        78.617417420       -23.507950313       -23.505784631        42.444869496
        42           21.000000         0.002188175        76.774457092       -23.507895110       -23.505784730        37.031953672
        43           21.500000         0.002246706        78.828071801       -23.507910305       -23.505787287        37.263292758
        44           22.000000         0.002337186        82.002665008       -23.507958702       -23.505791624        42.709434448
        45           22.500000         0.002361370        82.851215172       -23.507974527       -23.505795962        37.803988926
        46           23.000000         0.002295498        80.540007372       -23.507894463       -23.505798242        37.269110616
        47           23.500000         0.002107428        73.941369345       -23.507692261       -23.505796849        37.220234446
        48           24.000000         0.001800942        63.187976216       -23.507403478       -23.505792014        36.375185888
        49           24.500000         0.001519371        53.308748809       -23.507124119       -23.505786380        42.687691562
        50           25.000000         0.001340481        47.032209084       -23.506962807       -23.505783412        50.012057198
        51           25.500000         0.001379151        48.388995228       -23.506988281       -23.505785413        43.512833253
        52           26.000000         0.001566466        54.961136577       -23.507194617       -23.505792096        36.417820697
        53           26.500000         0.001896056        66.525157202       -23.507501064       -23.505800506        36.894687165
        54           27.000000         0.002174276        76.286810726       -23.507798430       -23.505807181        36.317683708
        55           27.500000         0.002365117        82.982666342       -23.507998224       -23.505809766        36.731832355
        56           28.000000         0.002435306        85.445311017       -23.508061142       -23.505807964        37.215406640
        57           28.500000         0.002387162        83.756138070       -23.508010327       -23.505803094        36.705033964
        58           29.000000         0.002290710        80.372015231       -23.507905756       -23.505796938        36.571857766
        59           29.500000         0.002247170        78.844381608       -23.507816134       -23.505791068        37.240503043
        60           30.000000         0.002225632        78.088687239       -23.507791476       -23.505786569        47.509027446
        61           30.500000         0.002280595        80.017103661       -23.507848103       -23.505784132        35.993808185
        62           31.000000         0.002406412        84.431556632       -23.507960967       -23.505783498        36.631256739
        63           31.500000         0.002484904        87.185526391       -23.508069376       -23.505783493        37.696064936
        64           32.000000         0.002535325        88.954600095       -23.508100307       -23.505782321        37.658594612
        65           32.500000         0.002471869        86.728169351       -23.507998829       -23.505778023        36.564124510
        66           33.000000         0.002230892        78.273247756       -23.507755072       -23.505769424        36.765320130
        67           33.500000         0.001937909        67.993604223       -23.507429135       -23.505757656        42.321951750
        68           34.000000         0.001656099        58.106020587       -23.507126038       -23.505745752        36.281723384
        69           34.500000         0.001487042        52.174466943       -23.506961620       -23.505737532        42.293407633
        70           35.000000         0.001538823        53.991261096       -23.506995245       -23.505735062        51.803962335
        71           35.500000         0.001733534        60.822900121       -23.507200220       -23.505737101        36.481572849
        72           36.000000         0.002008723        70.478210791       -23.507479487       -23.505740064        42.602624151
        73           36.500000         0.002224788        78.059057168       -23.507723788       -23.505740341        35.893563452
        74           37.000000         0.002310092        81.052063227       -23.507860831       -23.505736352        35.882960212
        75           37.500000         0.002359102        82.771608185       -23.507885227       -23.505728655        36.312058618
        76           38.000000         0.002307585        80.964100633       -23.507840588       -23.505719257        37.347546337
        77           38.500000         0.002293396        80.466252718       -23.507793741       -23.505710317        36.273158334
        78           39.000000         0.002316894        81.290722332       -23.507799491       -23.505703258        42.077627911
        79           39.500000         0.002378910        83.466601122       -23.507880416       -23.505698828        42.380885101
        80           40.000000         0.002476447        86.888810687       -23.508018848       -23.505696621        44.316065262
        81           40.500000         0.002603581        91.349418593       -23.508159708       -23.505695671        36.446616259
        82           41.000000         0.002702025        94.803429503       -23.508235348       -23.505694445        36.844676571
        83           41.500000         0.002636482        92.503787496       -23.508183210       -23.505691238        38.011203154
        84           42.000000         0.002448762        85.917425365       -23.507980996       -23.505684887        37.421744494
        85           42.500000         0.002099485        73.662670110       -23.507657131       -23.505675385        36.436982824
        86           43.000000         0.001749967        61.399461009       -23.507306349       -23.505664981        42.412900940
        87           43.500000         0.001487661        52.196168112       -23.507039964       -23.505656905        43.006888505
        88           44.000000         0.001432889        50.274460138       -23.506933202       -23.505653712        41.930780605
        89           44.500000         0.001464405        51.380224841       -23.507001435       -23.505655806        42.877515220
        90           45.000000         0.001691102        59.334129250       -23.507184285       -23.505660770        43.674175905
        91           45.500000         0.001898001        66.593399715       -23.507381822       -23.505664918        37.558454788
        92           46.000000         0.002009529        70.506473807       -23.507508258       -23.505665619        37.856665023
        93           46.500000         0.002049872        71.921968859       -23.507536734       -23.505662681        36.949566469
        94           47.000000         0.002008974        70.486989470       -23.507496880       -23.505657742        36.263308298
        95           47.500000         0.002000936        70.204982684       -23.507454478       -23.505652979        41.841168716
        96           48.000000         0.002016474        70.750161836       -23.507475194       -23.505650222        37.433679542
        97           48.500000         0.002151723        75.495525332       -23.507594403       -23.505650384        42.799266258
        98           49.000000         0.002381268        83.549351186       -23.507803610       -23.505653186        43.202533190
        99           49.500000         0.002622174        92.001782401       -23.508050214       -23.505657708        37.879109523
       100           50.000000         0.002842949        99.747926200       -23.508258094       -23.505662435        42.307899306
       101           50.500000         0.002919246       102.424892221       -23.508351072       -23.505665628        36.785606718
       102           51.000000         0.002865795       100.549476044       -23.508283870       -23.505666040        37.164376088
       103           51.500000         0.002689242        94.354935727       -23.508060389       -23.505663172        36.638973368
       104           52.000000         0.002397800        84.129387632       -23.507739803       -23.505657820        42.295225584
       105           52.500000         0.002057806        72.200330629       -23.507426243       -23.505652884        36.844059709
       106           53.000000         0.001851683        64.968286478       -23.507217600       -23.505651385        42.664051248
       107           53.500000         0.001815591        63.701943865       -23.507162241       -23.505654810        42.128832106
       108           54.000000         0.001886675        66.196031482       -23.507233373       -23.505661889        36.321154920
       109           54.500000         0.001964719        68.934289445       -23.507348041       -23.505669099        35.907920095
       110           55.000000         0.001985337        69.657686602       -23.507419716       -23.505673201        42.103120371
       111           55.500000         0.002021312        70.919889266       -23.507407543       -23.505673014        37.313502867
       112           56.000000         0.001944451        68.223137066       -23.507327679       -23.505669448        37.023418989
       113           56.500000         0.001894503        66.470660524       -23.507241917       -23.505664812        36.403185050
       114           57.000000         0.001887281        66.217276688       -23.507222792       -23.505661503        36.877948346
       115           57.500000         0.001990033        69.822447006       -23.507315828       -23.505660841        36.526218789
       116           58.000000         0.002198383        77.132615959       -23.507518798       -23.505662728        43.042583008
       117           58.500000         0.002457989        86.241168671       -23.507783470       -23.505666043        36.228272923
       118           59.000000         0.002669685        93.668775222       -23.508033133       -23.505669028        36.782919006
       119           59.500000         0.002786656        97.772801872       -23.508191090       -23.505670066        37.035415845
       120           60.000000         0.002849484        99.977187074       -23.508204564       -23.505668035        44.569540559
       121           60.500000         0.002736411        96.009927878       -23.508062208       -23.505662610        37.237449029
       122           61.000000         0.002466839        86.551702789       -23.507805719       -23.505654311        36.914833024
       123           61.500000         0.002197036        77.085372780       -23.507520428       -23.505645109        36.317666297
       124           62.000000         0.001994300        69.972166701       -23.507294525       -23.505637625        36.122288346
       125           62.500000         0.001896104        66.526851992       -23.507189124       -23.505633917        41.649125196
       126           63.000000         0.001914115        67.158760047       -23.507205197       -23.505634066        36.659301475
       127           63.500000         0.001992635        69.913735293       -23.507284856       -23.505635823        36.695250669
       128           64.000000         0.002044176        71.722102540       -23.507345871       -23.505635962        37.079374385
       129           64.500000         0.001978208        69.407545453       -23.507327944       -23.505632357        36.592479019
       130           65.000000         0.001904917        66.836043646       -23.507228762       -23.505625112        44.649429697
       131           65.500000         0.001807822        63.429379686       -23.507094761       -23.505615858        36.653440670
       132           66.000000         0.001700222        59.654123903       -23.507002625       -23.505607173        36.261457400
       133           66.500000         0.001705692        59.846022694       -23.507020362       -23.505601016        36.366514670
       134           67.000000         0.001864669        65.423913799       -23.507174517       -23.505597996        36.456359231
       135           67.500000         0.002106189        73.897902728       -23.507438468       -23.505597577        36.857274052
       136           68.000000         0.002413326        84.674112577       -23.507749769       -23.505598252        36.646727802
       137           68.500000         0.002709653        95.071072850       -23.508024474       -23.505598326        36.218528260
       138           69.000000         0.002904860       101.920110754       -23.508186485       -23.505596303        36.634361329
       139           69.500000         0.002896762       101.636000721       -23.508192407       -23.505591304        36.375067724
       140           70.000000         0.002751314        96.532797739       -23.508049752       -23.505583485        45.608449687
       141           70.500000         0.002522111        88.490955279       -23.507815700       -23.505574005        36.681899511
       142           71.000000         0.002325471        81.591657161       -23.507572124       -23.505565097        36.274967766
       143           71.500000         0.002193234        76.951976346       -23.507396064       -23.505559365        41.592511213
       144           72.000000         0.002150504        75.452742447       -23.507318350       -23.505558082        36.867826922
       145           72.500000         0.002134686        74.897741718       -23.507312234       -23.505560129        36.381662682
       146           73.000000         0.002107565        73.946164756       -23.507305558       -23.505562484        36.460032835
       147           73.500000         0.002003728        70.302961855       -23.507228487       -23.505561988        35.954049475
       148           74.000000         0.001827318        64.113394745       -23.507057468       -23.505557516        35.903265104
       149           74.500000         0.001621385        56.888035777       -23.506832107       -23.505550270        36.553810980
       150           75.000000         0.001399809        49.113807923       -23.506640128       -23.505543136        47.622705170
       151           75.500000         0.001307236        45.865786356       -23.506571165       -23.505538996        36.098928022
       152           76.000000         0.001396958        49.013772171       -23.506670926       -23.505539110        36.431751865
       153           76.500000         0.001638045        57.472551245       -23.506923296       -23.505542776        36.030319710
       154           77.000000         0.001994975        69.995839106       -23.507261494       -23.505548222        36.209877976
       155           77.500000         0.002303603        80.824381910       -23.507588975       -23.505553307        36.134722151
       156           78.000000         0.002543765        89.250709616       -23.507822947       -23.505556283        37.349524423
       157           78.500000         0.002670903        93.711488967       -23.507913705       -23.505556147        36.015086505
       158           79.000000         0.002673460        93.801209302       -23.507863277       -23.505552990        36.061490492
       159           79.500000         0.002551738        89.530454412       -23.507724736       -23.505548236        36.426764814
       160           80.000000         0.002406360        84.429720072       -23.507578273       -23.505544158        48.231427862
       161           80.500000         0.002334541        81.909875126       -23.507497814       -23.505543174        41.750889049
       162           81.000000         0.002345998        82.311854967       -23.507511048       -23.505546384        35.878551578
       163           81.500000         0.002386612        83.736848208       -23.507583515       -23.505552830        35.731520895
       164           82.000000         0.002419499        84.890721852       -23.507635213       -23.505559660        35.789595171
       165           82.500000         0.002374189        83.300979051       -23.507583761       -23.505563732        36.221723737
       166           83.000000         0.002181915        76.554817644       -23.507389767       -23.505563251        35.831233389
       167           83.500000         0.001933711        67.846308458       -23.507083994       -23.505558935        36.235994746
       168           84.000000         0.001621199        56.881509232       -23.506756090       -23.505553414        36.069359058
       169           84.500000         0.001394716        48.935119808       -23.506516185       -23.505549898        41.644541661
       170           85.000000         0.001318562        46.263164008       -23.506450632       -23.505550397        42.227135060
       171           85.500000         0.001439563        50.508594232       -23.506577678       -23.505554920        36.193327196
       172           86.000000         0.001705068        59.824135358       -23.506851506       -23.505561969        35.928034567
       173           86.500000         0.002026341        71.096334555       -23.507182075       -23.505569284        36.048922972
       174           87.000000         0.002317571        81.314474656       -23.507472063       -23.505574792        36.000582878
       175           87.500000         0.002503058        87.822490104       -23.507653677       -23.505577060        35.568275120
       176           88.000000         0.002527378        88.675780336       -23.507700182       -23.505575680        35.713321110
       177           88.500000         0.002420305        84.919009304       -23.507640961       -23.505571559        35.541031501
       178           89.000000         0.002357219        82.705559700       -23.507545017       -23.505566680        35.828194516
       179           89.500000         0.002322915        81.501958081       -23.507486603       -23.505563421        35.493720307
       180           90.000000         0.002317107        81.298170947       -23.507512436       -23.505563612        48.841151192
       181           90.500000         0.002408988        84.521937493       -23.507613349       -23.505567519        35.872887282
       182           91.000000         0.002513912        88.203281203       -23.507723536       -23.505573134        35.723438177
       183           91.500000         0.002560136        89.825111951       -23.507747727       -23.505577087        35.564173031
       184           92.000000         0.002458480        86.258403856       -23.507611618       -23.505576572        36.114439432
       185           92.500000         0.002200926        77.221844340       -23.507307220       -23.505570871        36.037751171
       186           93.000000         0.001823258        63.970952093       -23.506905165       -23.505561790        35.879954508
       187           93.500000         0.001464104        51.369668606       -23.506535683       -23.505553084        35.453189518
       188           94.000000         0.001271388        44.608010208       -23.506314220       -23.505547920        35.457403943
       189           94.500000         0.001278440        44.855440214       -23.506304015       -23.505547574        42.260689658
       190           95.000000         0.001485362        52.115509228       -23.506492012       -23.505551276        43.452230398
       191           95.500000         0.001803470        63.276693976       -23.506797660       -23.505556576        35.762003703
       192           96.000000         0.002123101        74.491259476       -23.507110181       -23.505560737        35.395355969
       193           96.500000         0.002368819        83.112541254       -23.507336568       -23.505561767        35.479127339
       194           97.000000         0.002468208        86.599729035       -23.507426997       -23.505558744        36.236252306
       195           97.500000         0.002433222        85.372215310       -23.507394022       -23.505552076        36.043778705
       196           98.000000         0.002400083        84.209501979       -23.507306538       -23.505543599        35.842647416
       197           98.500000         0.002390629        83.877794131       -23.507255390       -23.505535979        35.896509072
       198           99.000000         0.002445139        85.790312921       -23.507313650       -23.505531926        41.131169832
       199           99.500000         0.002630251        92.285186020       -23.507494545       -23.505532722        35.744759567
       200          100.000000         0.002848567        99.945038998       -23.507736362       -23.505536899        42.241596844
       201          100.500000         0.003009537       105.592825499       -23.507922165       -23.505540974        35.635942581
       202          101.000000         0.003041237       106.705054864       -23.507935800       -23.505541373        36.359144325
       203          101.500000         0.002827063        99.190543345       -23.507724785       -23.505536117        36.368005662
       204          102.000000         0.002417770        84.830066495       -23.507327806       -23.505526062        36.062504357
       205          102.500000         0.001963852        68.903838540       -23.506857553       -23.505514452        35.637865613
       206          103.000000         0.001580925        55.468465246       -23.506459114       -23.505505387        41.869048059
       207          103.500000         0.001370517        48.086072333       -23.506241658       -23.505501471        35.664127384
       208          104.000000         0.001365494        47.909816308       -23.506239896       -23.505502895        36.205804130
       209          104.500000         0.001543702        54.162424220       -23.506408295       -23.505507764        35.921119309
       210          105.000000         0.001806126        63.369874611       -23.506650339       -23.505513339        41.919635600
       211          105.500000         0.002003162        70.283072028       -23.506862106       -23.505517041        35.669605735
       212          106.000000         0.002121747        74.443773876       -23.506971176       -23.505517260        35.844200235
       213          106.500000         0.002154594        75.596242997       -23.506963354       -23.505513706        36.308717805
       214          107.000000         0.002072622        72.720163605       -23.506884306       -23.505507475        36.271115225
       215          107.500000         0.002035286        71.410175443       -23.506823263       -23.505501090        35.498661216
       216          108.000000         0.002068128        72.562491531       -23.506870562       -23.505497590        35.794861228
       217          108.500000         0.002267537        79.558959004       -23.507069453       -23.505499163        42.017928155
       218          109.000000         0.002602644        91.316543197       -23.507385212       -23.505505618        36.080481333
       219          109.500000         0.002890649       101.421510369       -23.507709041       -23.505514151        35.559800090
       220          110.000000         0.003088855       108.375778673       -23.507904804       -23.505520534        41.903686219
       221          110.500000         0.003048272       106.951886935       -23.507871415       -23.505521541        35.762135271
       222          111.000000         0.002787400        97.798925612       -23.507595935       -23.505516492        35.412270022
       223          111.500000         0.002324471        81.556567992       -23.507168733       -23.505508054        35.755791092
       224          112.000000         0.001904302        66.814473214       -23.506738645       -23.505500547        36.064615009
       225          112.500000         0.001627878        57.115828977       -23.506449188       -23.505497990        40.987708985
       226          113.000000         0.001524633        53.493377360       -23.506371163       -23.505501777        36.310240301
       227          113.500000         0.001623015        56.945238410       -23.506485090       -23.505510404        35.404003066